"Compound","Boiling point in °C","Ebullioscopic constant K b in units of [ (°C·kg)/mol ] or [ °C/molal ]"
"Acetic acid","118.1","3.07"
"Benzene","80.1","2.53"
"Carbon disulfide","46.2","2.37"
"Carbon tetrachloride","76.8","4.95"
"Naphthalene","217.9","5.8"
"Phenol","181.75","3.04"
"Water","100","0.512"