"Solvent","dielectric constant","temperature /K"
"benzene","2.3","298"
"diethyl ether","4.3","293"
"tetrahydrofuran","7.6","298"
"dichloromethane","9.1","293"
"liquid ammonia","17","273"
"ethanol","24.3","298"
"methanol","32.7","298"
"nitromethane","35.9","303"
"dimethyl formamide","36.7","298"
"acetonitrile","37.5","293"
"water","78.7","298"
"formamide","109","293"