"Formula","symmetry","[Space_group|space group]","No","[Pearson_symbol|Pearson symbol]","a (pm)","b (pm)","c (pm)","Z","density, g/cm 3"
"α-Pm","dhcp","P6 3 /mmc","194","hP4","365","365","1165","4","7.26"
"β-Pm","bcc","Fm 3 m","225","cF4","410","410","410","4","6.99"
"Pm 2 O 3","cubic","Ia 3","206","cI80","1099","1099","1099","16","6.77"
"Pm 2 O 3","monoclinic","C2/m","12","mS30","1422","365","891","6","7.40"
"Pm 2 O 3","hexagonal","P 3 m1","164","hP5","380.2","380.2","595.4","1","7.53"