"Formula","color","coordination number","symmetry","[Space_group|space group]","No","[Pearson_symbol|Pearson symbol]","[Melting_point|m.p.]"
"PmF 3","Purple-pink","11","hexagonal","P 3 c1","165","hP24","1338"
"PmCl 3","Lavender","9","hexagonal","P6 3 /mc","176","hP8","655"
"PmBr 3","Red","8","orthorhombic","Cmcm","63","oS16","624"
"α-PmI 3","Red","8","orthorhombic","Cmcm","63","oS16","α→β"
"β-PmI 3","Red","6","rhombohedral","R 3","148","hR24","695"